LAMMPS data file via write_data, version 23 Jun 2022, timestep = 150000

2048 atoms
3 atom types

0 84.57904 xlo xhi
0 42.28952 ylo yhi
0 42.28952 zlo zhi

Masses

1 39.0983
2 30
3 50

Atoms # atomic

2 1 2.5623482520671916 2.7716450628485396 2.6168537084984456 0 0 0
3 3 5.295913560718193 0.04140330727920356 0.153984229621861 0 0 0
4 1 7.973554597170582 2.9536305418676605 2.4005956407255504 0 0 0
6 2 13.085104885721305 2.771399418701765 2.5509519602861905 0 0 0
8 3 18.359004355153115 2.4871763632448847 2.656177550621747 0 0 0
10 1 2.4061279299794935 7.795201879171246 2.6193517535617192 0 0 0
12 2 7.84161443065378 8.09793670873622 2.625381206515846 0 0 0
15 3 15.757767626322531 5.32814376061597 0.11835529112470355 0 0 0
14 1 13.297055248957879 8.125693408083153 2.703920933689737 0 0 0
16 3 18.438056781317233 7.7810751192953305 2.640472548082747 0 0 0
529 3 21.113847569245472 10.520062250545875 0.03454067804024713 0 0 0
18 2 2.4531189030328573 13.214261685737807 2.65013614790187 0 0 0
20 2 7.924650223836686 13.023250001207797 2.5337716544799433 0 0 0
29 1 10.506986332646477 15.780986915636364 0.23846120670540702 0 0 0
22 2 13.310487178070186 13.018354717211029 2.5933346927864087 0 0 0
23 2 15.955264394363025 10.585063640419516 0.1258451779668051 0 0 0
24 2 18.50382889310509 13.32639272784834 2.6689287763639387 0 0 0
25 2 0.019376624120448466 16.19693486839573 0.1054094791517982 0 0 0
26 3 2.8193555261783447 18.780641427316976 2.6908763538849825 0 0 0
28 2 8.05263495271914 18.657059935733823 2.768938140045432 0 0 0
31 3 15.827262610098998 16.069552204838445 0.1872498115770803 0 0 0
30 2 13.1555136458127 18.742919925371286 2.7130586912200143 0 0 0
32 3 18.777582333042485 18.72269134979777 2.659865611299229 0 0 0
34 2 2.283205510268435 2.72977598044523 7.9636301429785945 0 0 0
35 3 5.265002728046762 0.33027411326677336 5.273563076548684 0 0 0
36 3 7.892842014485459 2.905995042042185 7.999344939387189 0 0 0
37 2 10.483526093766292 0.07583891075331314 5.330997226825808 0 0 0
38 3 12.8491343261395 2.7895403834505745 7.89191221976526 0 0 0
39 3 15.594428093217182 0.026423188562075494 5.34440163745125 0 0 0
40 3 18.458505311203144 2.7138243011578673 7.93413434317779 0 0 0
43 3 5.234493503747677 5.32929242021075 5.408905411814504 0 0 0
42 2 2.3269685337490027 8.146814106069305 7.823662179306621 0 0 0
51 1 5.108322738571063 10.538599287985074 5.217412050898733 0 0 0
45 1 10.472541589866172 5.443129723229364 5.014199096457674 0 0 0
44 3 7.728948024202035 8.059658182984517 7.878455708427446 0 0 0
47 2 15.577414039630678 5.372439831880491 5.255681841414933 0 0 0
46 2 13.108276370730556 8.253830101671959 7.939090359274898 0 0 0
48 1 18.506966504291142 7.806210217633102 7.617528059883939 0 0 0
50 3 2.6390616341393067 13.213268050151337 7.884039849135958 0 0 0
53 1 10.5429722533114 10.797528726325107 5.291002006786976 0 0 0
59 3 5.417626611584266 15.803747838535692 5.261613078039988 0 0 0
52 2 7.97165765571074 13.01968361495988 7.823732906627629 0 0 0
61 1 10.7064028202371 15.743329804447615 5.208409178558151 0 0 0
54 3 13.241692492299379 13.206377068637135 8.08758072260023 0 0 0
55 3 15.995829007870945 10.805477796516826 5.133910068665895 0 0 0
56 2 18.58746915176266 13.364705962948161 7.76734812553935 0 0 0
291 2 5.177167569656728 21.110262058224443 5.438834494945464 0 0 0
57 3 0.18923008399704874 16.07178410118039 5.153604575075906 0 0 0
58 2 2.628499252608753 18.505790126517976 7.93305173543604 0 0 0
60 3 8.024986562382665 18.63330617713974 7.719928453360066 0 0 0
63 2 15.822489627586581 16.216615446231582 5.269827757273439 0 0 0
62 2 13.096904560336329 18.577064799668996 8.074472079101865 0 0 0
64 2 18.773875200244312 18.50666929085031 8.003128082196193 0 0 0
66 3 2.502650286105155 2.462658992131375 13.247255783514678 0 0 0
67 2 5.233023495615076 0.19754829245421426 10.452071122914505 0 0 0
68 3 7.996277387474597 2.7702771649183484 13.179671579969915 0 0 0
70 1 12.99813911907532 2.5401196276185036 13.016768308805187 0 0 0
71 2 15.826435743594281 0.19600026827881759 10.445817837297074 0 0 0
577 3 21.05529283997422 0.23006521376835634 10.67505679213022 0 0 0
79 1 15.954043706002443 5.284727551884788 10.428268215168039 0 0 0
72 3 18.632163628410147 2.803180891903429 13.38272734182858 0 0 0
75 1 5.223332626071906 5.471294388016012 10.677110843682318 0 0 0
74 1 2.4674952670962917 7.935913314818607 13.443434783085639 0 0 0
83 3 5.286605192755952 10.558155820988153 10.495803050117862 0 0 0
76 3 8.065997131755186 7.769154996540591 13.333792620869833 0 0 0
85 2 10.560528762097114 10.55533675210053 10.816687324807072 0 0 0
77 1 10.63532923444134 5.403226679259323 10.600447136925009 0 0 0
78 3 13.481918407678938 8.047670637893884 13.232196399196871 0 0 0
585 1 20.935856965797072 5.509621524668058 10.835618503313182 0 0 0
87 3 16.11742890209808 10.45489876702287 10.471286720768544 0 0 0
80 1 18.51197843545731 7.887781984942061 13.461899951703563 0 0 0
82 3 2.653889606525166 13.19990477587962 13.199890952675219 0 0 0
91 1 5.506856030086865 15.76458266435584 10.374850431156391 0 0 0
84 1 7.695239741291019 13.101450990861917 13.387260089679044 0 0 0
93 2 10.509353262100497 15.6996067644236 10.849184085683936 0 0 0
86 3 13.288926283469888 13.140277348382707 13.330722752836385 0 0 0
88 1 18.506613331849234 12.998920977422797 13.370293278773849 0 0 0
321 1 0.03454691378167396 20.94173611804681 10.601559456058114 0 0 0
90 3 2.759703449922788 18.263713670558992 13.169834875121857 0 0 0
89 3 0.03798425382034585 15.917973576522543 10.377551394397365 0 0 0
325 1 10.278033359947933 21.11452883357101 10.741453370517995 0 0 0
92 1 7.95427864107147 18.599521199033607 13.49269684126928 0 0 0
94 2 12.99144244470254 18.50030144747994 13.175173428976587 0 0 0
96 2 18.747726359650727 18.55678793927218 13.147307778041087 0 0 0
327 3 15.968253972951725 20.927885849069884 10.77951845352872 0 0 0
95 1 16.1176009597071 15.91289870716238 10.558354183709083 0 0 0
98 1 2.6333540261975474 2.7041379566836987 18.529344069943154 0 0 0
107 2 5.236011538012919 5.202558104078062 15.73248272202909 0 0 0
100 1 7.929089855183766 2.8432661946062185 18.327898849562914 0 0 0
101 1 10.59202542931108 0.016268655881307523 15.66278726787629 0 0 0
102 3 12.996852678385926 2.5073064880146436 18.705945153426093 0 0 0
103 1 15.716139849998408 0.16307346398279118 15.700686743617005 0 0 0
111 2 15.505526747758092 5.031122403428034 15.751621215583397 0 0 0
104 2 18.244157088359998 2.6481689593204454 18.496964838217224 0 0 0
106 3 2.489476067517358 7.719481719996591 18.49203779716521 0 0 0
115 1 5.158098817057045 10.531240822423703 15.8416955731682 0 0 0
108 3 8.014300842158088 7.74933568131219 18.447028835269695 0 0 0
117 2 10.561279422667559 10.498414345974346 15.810818501015314 0 0 0
109 3 10.685811343466504 5.360568976259221 15.806906221035868 0 0 0
110 2 13.243315929739577 7.917267750980952 18.74661560028633 0 0 0
112 2 18.412411745701405 8.022159029748288 18.253643629096963 0 0 0
114 1 2.5915135711365083 12.948877944729999 18.658418387031883 0 0 0
121 1 0.10300072464053017 15.615455787048038 15.978175668073728 0 0 0
123 3 5.1004582977908415 15.794571680531208 15.865434516745406 0 0 0
116 3 7.880217407070186 13.122716694168453 18.385509308028716 0 0 0
125 3 10.514884154206069 15.657688724216165 16.049611234072245 0 0 0
119 1 15.618465976984146 10.758555650372013 16.03177068440404 0 0 0
118 3 13.103450884257656 13.550555759227036 18.71009461088991 0 0 0
120 2 18.329343311756553 13.265818118387347 18.55353694337422 0 0 0
122 3 2.380787631146643 18.18459838184522 18.628692985343324 0 0 0
355 1 5.100330341008022 20.881662819666076 15.719618205150429 0 0 0
124 2 7.887086368680501 18.60610205713665 18.31470810609139 0 0 0
127 1 15.669031712843147 16.030329562820146 15.622189727384324 0 0 0
126 1 13.103464469953876 18.494479749023476 18.421360005539608 0 0 0
128 2 18.65012259499945 18.679519308696158 18.103222694415397 0 0 0
129 2 0.010589963961204958 0.018352288478794575 21.073814805377587 0 0 0
139 3 5.240917296400492 5.258485483228831 21.097098664000324 0 0 0
131 3 5.446633458314601 0.1534497819560086 21.126794531452184 0 0 0
133 2 10.287145207536595 0.1569033670623768 21.283242825943578 0 0 0
141 2 10.42136568206777 5.176073557673711 21.270657544172423 0 0 0
135 2 15.982729675989365 0.08176120329937714 21.506067107518863 0 0 0
641 3 21.028020402465984 0.313431041602911 21.141372351414923 0 0 0
147 3 5.26293399012326 10.311029351382501 21.11589753608612 0 0 0
143 2 15.925652534779676 5.439970742105288 21.314823119781206 0 0 0
151 2 16.05111142742453 10.433234089620758 21.422433592395503 0 0 0
649 3 20.79275826191109 5.536595860008359 21.065095416006088 0 0 0
149 1 10.569731117490923 10.66532341236191 21.094388905624843 0 0 0
157 2 10.55581747848354 15.749288927592758 21.17594353056933 0 0 0
657 3 21.144290342641472 10.635680621669133 21.09281198917326 0 0 0
387 1 5.203925985612254 20.97547180769044 21.03365692023765 0 0 0
155 2 5.462984032427316 15.96116425719235 21.24145935338708 0 0 0
159 1 16.01267459076997 15.97434259375344 21.259800297643107 0 0 0
391 2 15.912448227713874 20.956237411121037 21.09600944159827 0 0 0
130 1 2.587112319745034 2.7397563613674962 23.752023144622406 0 0 0
162 2 5.368484473966001 0.1879603514715232 26.38557238184497 0 0 0
132 2 7.686951940453913 3.0098439340056715 24.002002174909727 0 0 0
163 3 10.55422476069276 0.13986667301556005 26.472286622105347 0 0 0
134 3 13.177803985946856 2.689110708636559 23.98576191144777 0 0 0
136 2 18.53439257101065 2.869146080492179 24.051344590395864 0 0 0
166 2 4.992357457216363 5.361639184188382 26.724915384395217 0 0 0
138 1 2.41143523042535 7.803353319344012 23.644224719436842 0 0 0
170 2 5.077361674092414 10.46774917119971 26.434384197773763 0 0 0
140 2 7.839522152698308 7.76858161060463 24.045889878012748 0 0 0
171 1 10.480494292483725 10.44713277919231 26.66220533242642 0 0 0
167 1 10.589732709339883 5.31969840083233 26.47886976070789 0 0 0
168 1 15.798155014325564 5.301825766417686 26.50945074040962 0 0 0
142 1 13.176324124179896 7.7964604191787785 23.909153062530855 0 0 0
172 3 15.778608675875073 10.307352612969318 26.574540310693482 0 0 0
144 3 18.713879736096864 7.794006765470943 24.095987740255204 0 0 0
146 2 2.831674275887934 13.40100970078241 23.94498458505485 0 0 0
175 3 10.409767742001302 15.755035882896335 26.410240243550252 0 0 0
148 2 7.845535055590641 12.993139422122203 23.87246280689629 0 0 0
150 2 13.19767163260411 13.406686345382832 23.855775925725837 0 0 0
152 3 18.59611687014113 13.182469216256036 23.931895989937107 0 0 0
154 1 2.701980417327525 18.55412036791033 24.010672813982584 0 0 0
417 1 0.11953635763960371 20.91157752096466 26.36422944749741 0 0 0
156 3 8.06788191323867 18.46918463387894 23.82847671819764 0 0 0
174 1 5.517728851907924 16.010127588746116 26.685124383718694 0 0 0
418 1 5.534384354080511 20.955450041692405 26.459951571464195 0 0 0
158 3 13.057526377769175 18.419632862447372 23.695576427490984 0 0 0
160 1 18.82209013535422 18.478501830054714 23.686628305466037 0 0 0
176 1 16.17842708691624 16.02350625662332 26.51645934608779 0 0 0
420 2 15.997809608927678 20.99602871072285 26.023700666621366 0 0 0
177 2 2.477188131428015 2.6424620522424367 29.09298647706107 0 0 0
195 2 5.2326570679439035 0.1259249570948182 31.714500369654594 0 0 0
203 1 5.231315991730128 5.244821752979828 31.79153392926099 0 0 0
178 1 7.827302691995816 2.638057278671523 29.12046640639949 0 0 0
205 2 10.368751878831118 5.165140142225388 31.84679777199794 0 0 0
197 3 10.630319466014297 0.11587220865400454 31.746868028985546 0 0 0
179 1 13.284903935601271 2.553641096770084 29.250495346616884 0 0 0
199 2 15.779134446294181 0.008895455238194806 31.94625333702169 0 0 0
207 3 15.667536739132258 5.103465927714547 31.7913159404215 0 0 0
180 2 18.332382681368884 2.6953704796264635 29.084355034927277 0 0 0
181 1 2.238642349952061 8.052434836795392 29.184851554920634 0 0 0
211 1 5.136903593653421 10.564863985917986 31.89130917107734 0 0 0
182 1 7.920331820480338 8.088058210356909 29.241626954786895 0 0 0
213 2 10.785004138093607 10.436525591070534 31.74010108641553 0 0 0
183 3 13.121561316987842 7.788707121635329 29.27897676737373 0 0 0
215 1 16.002434546481414 10.481882550645603 31.578443777698578 0 0 0
184 2 18.466419718307684 7.561393596487214 29.06325878607907 0 0 0
721 1 20.85431371904642 10.551282098807565 31.736472112946025 0 0 0
185 3 2.5335263201507523 13.098671054646738 29.20251789307548 0 0 0
219 3 5.347296987328044 15.838925231671366 31.832641996771493 0 0 0
186 3 7.80786745119019 12.966206361709204 29.082457892773395 0 0 0
187 1 13.307032282393898 13.204588084877074 28.942205951211232 0 0 0
188 1 18.4870174549001 13.137852877052254 29.08270339222474 0 0 0
217 1 0.06602901558449445 15.933150705233833 31.8288183253182 0 0 0
189 2 2.7868744573536057 18.633481536503243 29.23669612399675 0 0 0
190 3 8.200506275539967 18.328778654051465 29.035153463375057 0 0 0
221 3 10.805432995379697 15.96385276526878 31.652153621883077 0 0 0
223 2 15.807522937896195 16.102414093085724 31.746195077538683 0 0 0
191 1 13.312115923326836 18.407880187393822 28.730595586385814 0 0 0
192 2 18.750526125860283 18.550601579421528 29.005958438866326 0 0 0
194 2 2.7524459583442398 2.736008151293153 34.44258945016297 0 0 0
227 1 5.564272981814929 0.038107212887241566 36.88837378706261 0 0 0
235 1 5.37293349455896 5.254035842559001 37.24607427381174 0 0 0
196 1 7.814787671845711 2.666893875368722 34.42566993508384 0 0 0
229 1 10.521635580335483 0.1453991738004884 37.08160034015485 0 0 0
198 3 13.02192763845633 2.878542078951267 34.49767623366176 0 0 0
239 2 15.782133918248247 5.226814493642891 36.997382660346766 0 0 0
200 3 18.46102284264741 2.794678023945885 34.23332566631972 0 0 0
202 1 2.4914581474921205 7.929843298496134 34.44333111595173 0 0 0
237 3 10.467363238721703 5.485565371070139 37.06018682043783 0 0 0
204 3 7.934027766019132 7.987271481701658 34.534049011884235 0 0 0
206 2 13.198296046556615 7.781599895536216 34.157526245136985 0 0 0
208 2 18.17296882078854 7.809120008944359 34.337584448251484 0 0 0
753 1 20.661094317514948 10.51182850528596 36.8324518075097 0 0 0
243 2 5.1871857576172165 10.994772188848549 36.66435001420223 0 0 0
210 3 2.3944379185528812 13.183639471304923 34.325844431692154 0 0 0
251 1 5.4616691106897655 15.816190847783528 36.97184884359378 0 0 0
212 3 8.21790308908539 13.409188450709342 34.296020958563155 0 0 0
245 1 10.769795934485675 10.747412822428345 37.06421460311268 0 0 0
247 2 15.781294367575981 10.62168177951523 37.08152043426584 0 0 0
253 1 10.702391759042131 15.68727216467791 36.90400728947981 0 0 0
214 2 13.499180163430774 13.4024215857893 34.29973197713944 0 0 0
761 3 21.1045166748735 15.754739260742848 36.98542649992733 0 0 0
216 1 18.32638080322462 13.387408228969493 34.482538092341095 0 0 0
218 1 2.721129015547313 18.470387606349682 34.47389902547646 0 0 0
220 2 7.969680404727006 18.49214670270068 34.377226113531044 0 0 0
483 1 5.579762746211916 21.132781732985485 37.247777574806854 0 0 0
255 3 15.642322373538795 15.975408014414876 37.100023256310386 0 0 0
222 2 13.015337234748108 18.78849528673954 34.438155414172876 0 0 0
224 1 18.47086246608176 18.525119546770277 34.47574107724963 0 0 0
487 1 15.866865098272843 21.119908213672343 37.017054538876636 0 0 0
226 2 2.697563445808763 2.4630087339087883 39.693203934759815 0 0 0
228 3 8.024019512539606 2.5948687682163363 39.70317956370169 0 0 0
230 2 13.15330952015572 2.5278047632168557 39.80298945564627 0 0 0
232 2 18.52704590424334 2.793761176421153 39.7977603280902 0 0 0
234 3 2.4192818272943657 8.062896735434338 39.57916048409673 0 0 0
11 3 5.175071135130495 5.423340984261272 42.04966032780911 0 0 -1
236 3 7.76004390950062 8.28992112711518 39.662852509449785 0 0 0
13 3 10.441626487232815 5.6829171709980795 41.96028122772571 0 0 -1
238 1 13.397776216773542 8.042356777474096 39.67498233340857 0 0 0
240 3 18.519035811253623 8.031725811223247 39.79956439212615 0 0 0
242 1 2.399676200029289 13.366144555595364 39.62530214541603 0 0 0
19 2 4.810898140231498 10.74621252692144 42.27040310147408 0 0 -1
244 1 7.753357443499213 13.022333253402186 39.796702973052334 0 0 0
27 1 5.358096017046701 15.800147047074779 42.18828943042472 0 0 -1
246 3 13.369192611131838 13.391271574580367 39.83855684478867 0 0 0
21 2 10.662417968007821 10.662132045732818 42.11907892297926 0 0 -1
248 1 18.300648464764336 13.262574510714105 39.70024241003034 0 0 0
250 3 2.6896852849851873 18.428455919167043 39.60549767699029 0 0 0
252 2 8.249913192993986 18.27127706963319 39.583926538634465 0 0 0
259 1 5.624543988175992 21.084656341298526 42.20712417288583 0 0 -1
254 3 12.922539891425002 18.590322629072762 39.71067498097107 0 0 0
256 1 18.43357388099447 18.52479263158713 39.67400256895095 0 0 0
258 2 2.7766277090761053 23.678166815586877 2.6027320263540474 0 0 0
260 1 7.986291354415288 23.844270767749755 2.8221161180172603 0 0 0
261 2 10.554648424639444 21.21660366809626 0.08318872368412161 0 0 0
262 2 13.406117325263931 23.736810605571034 2.872023399378945 0 0 0
269 2 10.824371414596142 26.328989616050347 0.26498418859409 0 0 0
264 1 18.578879239243264 23.94159305553045 2.5337526295721133 0 0 0
266 1 2.4405637130327946 28.974535776014523 2.452561811289337 0 0 0
267 2 5.365818698923422 26.482712627643014 0.3217834807513613 0 0 0
268 1 8.108721825248642 29.120419982283885 2.7666127226231603 0 0 0
277 3 10.633700774612914 31.59835230400385 0.1315887057656538 0 0 0
270 3 13.45424562912294 29.107540771229605 2.906188112406061 0 0 0
279 2 16.04173581401225 31.649821538753265 0.07165571150457764 0 0 0
272 1 18.522015342902364 29.183580676087466 2.7770832306284627 0 0 0
785 2 21.072367957011732 31.669004547559 0.037579892928507816 0 0 0
777 3 21.099636605745378 26.628696188303376 0.055585260784085495 0 0 0
274 2 2.5257801515636222 34.30712097265864 2.3296981076840058 0 0 0
276 3 7.924150132938622 34.205075183492596 2.7316646843020616 0 0 0
278 1 13.355476226508484 34.23309967626913 2.5356928355418433 0 0 0
280 3 18.42604259310323 34.43437589532331 2.740207147027835 0 0 0
282 2 2.595908596497682 39.493807725757854 2.57120010801572 0 0 0
284 3 7.789416929346667 39.421411647587234 2.64251002848755 0 0 0
286 2 13.207856818439504 39.6282648160964 2.693886140745633 0 0 0
513 2 21.004247595028335 41.93807387955301 0.09447529615443724 0 -1 0
288 3 18.38978807956381 39.50049229034265 2.716873113976256 0 0 0
289 1 0.18286189457147958 21.289544085352826 5.272699745740741 0 0 0
290 3 2.422459119689854 23.70630574515818 8.075873963762222 0 0 0
299 3 5.104165340120068 26.256733665757192 5.361617814966874 0 0 0
292 3 7.846308817276309 24.03332242291607 7.953172699428366 0 0 0
293 1 10.70560218316621 21.409292659415026 5.609742814333429 0 0 0
294 1 13.331752593858337 23.809507227267147 8.408880267531636 0 0 0
301 3 10.664596363014855 26.406483978483713 5.4151163914692315 0 0 0
801 1 21.034213189531794 21.425672542820234 5.289629250053754 0 0 0
295 3 15.942510088880582 21.268543517641117 5.428664283575471 0 0 0
296 1 18.421406966940012 23.792261764322 8.129529648595671 0 0 0
298 2 2.664405792230112 29.105789066690264 7.821242488954729 0 0 0
307 3 5.079117838031749 31.51874863503073 4.925588866839317 0 0 0
300 1 7.816757203638453 29.38978747849005 7.6875942970500875 0 0 0
309 2 10.632715956874689 31.626465234023833 5.269701505260293 0 0 0
302 1 13.356795895488549 29.165048391872418 7.977264139607359 0 0 0
303 2 16.03630925225601 26.50315656241824 5.508707849564707 0 0 0
304 2 18.683386387122553 29.150867133476538 7.9795621352451676 0 0 0
306 3 2.6531901626859145 34.17596014976761 8.128941771937653 0 0 0
313 3 0.09185233278862794 36.97842526429798 5.1917179899382475 0 0 0
315 1 4.883361332285068 36.686736732433495 5.159224837053409 0 0 0
308 3 7.663104187919486 34.20380646115203 7.639338870661983 0 0 0
310 2 13.283884020481889 34.401174137900156 8.033130728984428 0 0 0
317 3 10.617424428078262 36.832724388656914 5.484238090376617 0 0 0
311 2 15.96262055906784 31.75996288393416 5.397014530770766 0 0 0
312 3 18.81163736089288 34.550916004564016 8.125524344296482 0 0 0
314 3 2.642717791706157 39.667930277327535 7.78892488365443 0 0 0
316 3 7.733073388377365 39.27159175151997 7.719230025553777 0 0 0
318 2 13.274678181268003 39.40407763168478 7.890288923685318 0 0 0
319 2 15.853154278356344 37.034208704304774 5.209676166223306 0 0 0
545 2 21.090885002408307 42.169887180125755 5.530700303700946 0 -1 0
320 3 18.467040659241608 39.6761602406168 8.031524721288212 0 0 0
322 3 2.8735892401753906 23.746264507613542 13.070430719566968 0 0 0
323 2 5.286357839217287 21.156226069430183 10.549158184654424 0 0 0
324 3 7.687306892695026 23.962576981893054 13.120571522758958 0 0 0
326 2 13.24717282143023 23.94711107327315 13.116387161709712 0 0 0
328 2 18.443177821015887 23.823470257230394 13.255952451635938 0 0 0
330 2 2.600298895459409 29.1302425209176 13.297582371219764 0 0 0
331 2 5.047355793144774 26.512152243999335 10.52022755824028 0 0 0
337 3 0.05279283882941216 31.610743745596444 10.652269373457804 0 0 0
339 1 5.331904203505883 31.54520743906394 10.653858425020722 0 0 0
332 3 7.930189677109512 29.063601084606926 13.326444621161007 0 0 0
333 1 10.247339084820796 26.64331057163126 10.478727115316156 0 0 0
341 2 10.40933573328856 31.680776134685903 10.421058249822819 0 0 0
334 3 13.23164595877498 29.1756594045102 13.10015272514876 0 0 0
335 1 16.22172044916442 26.608382775833302 10.770073411664118 0 0 0
336 1 18.598250211692342 29.31920128216479 13.481300358627315 0 0 0
338 3 2.700929249735579 34.35331619271963 13.086840369343875 0 0 0
340 1 8.032395504103743 34.41225703447636 13.186917608715941 0 0 0
342 1 13.262605928852896 34.558395772884325 13.140990017341204 0 0 0
344 3 18.58625058442362 34.53486311750293 13.563697006748187 0 0 0
343 2 16.000021275979634 31.765555210031764 10.75333282079626 0 0 0
65 3 0.1375241016912188 42.24719705738391 10.505539494777492 0 -1 0
346 3 2.697526116805719 39.77665031573832 13.302817612609136 0 0 0
345 2 0.1588507950817344 37.157614286834054 10.401788812725783 0 0 0
347 1 5.163236077188844 37.10774043834472 10.59805802068166 0 0 0
69 3 10.501421268786492 42.103057900055134 10.422348731246307 0 -1 0
348 3 7.734565825840159 39.69862482098948 13.222472565688248 0 0 0
349 1 10.459204973002437 37.032745671006786 10.41431058496539 0 0 0
350 2 13.203745367223998 39.76307367132914 13.024656847079799 0 0 0
352 2 18.528387800018656 39.80349709062127 13.248924760661627 0 0 0
351 1 16.020716018736554 37.06824924499652 10.673385581201245 0 0 0
353 2 0.19752684750301738 21.155848128965722 15.860242879672175 0 0 0
354 1 2.5347928588168953 23.97720061051775 18.451154080279366 0 0 0
361 1 0.14800090005372196 26.26654608345569 15.804586510499508 0 0 0
356 3 7.727645070491914 23.790241464862746 18.241156105196076 0 0 0
357 2 10.610714702859658 21.370498353236336 15.894656537411954 0 0 0
358 1 13.432676439489153 23.679807888027703 18.493345514953727 0 0 0
365 2 10.663355842776074 26.34677895692945 15.793497790877765 0 0 0
359 2 15.902510739548065 21.355666382316638 15.614647169437806 0 0 0
360 2 18.256949233889582 23.701801704051004 18.620451557224687 0 0 0
362 2 2.398880473637272 29.196298826143234 18.55018852687397 0 0 0
363 1 5.241956471525742 26.613569474934533 16.067173494871387 0 0 0
371 1 5.328154898074935 31.717010937009597 15.985488145570342 0 0 0
364 3 7.975734724111062 29.300670903474774 18.504838220595378 0 0 0
366 3 13.137676521932853 29.2360261913063 18.51404039646538 0 0 0
367 3 15.847108521459559 26.612022337784982 15.804072967568628 0 0 0
368 3 18.362239433289393 29.053752322779115 18.46403209806192 0 0 0
369 3 0.09083932220154572 31.72717874817157 15.707027326603269 0 0 0
370 3 2.4870440445079254 34.29405443444676 18.486590406167434 0 0 0
377 1 0.04111178863415589 36.99240492813974 15.92411123168334 0 0 0
373 1 10.565249787679809 31.842305237396687 15.811150146859902 0 0 0
372 1 7.919056266606037 34.3619465159616 18.405762395535355 0 0 0
375 3 15.846879404321939 31.9223017801768 16.06646130775668 0 0 0
374 2 13.16423541650461 34.5966129090384 18.726387282697708 0 0 0
376 3 18.550861053123686 34.76606358461543 18.396052876932373 0 0 0
378 3 2.6726747371343014 39.82999033058896 18.622622159996695 0 0 0
379 3 5.181953271706616 37.068201434643875 15.882453602160494 0 0 0
380 1 8.347159519730154 39.712431655104126 18.54391964067082 0 0 0
381 2 10.553038322383559 37.15592831484331 15.790726621565286 0 0 0
99 1 5.303104859239267 42.273203868341575 15.990589969741732 0 -1 0
382 3 13.174233879780635 39.83398015217103 18.582146327084995 0 0 0
383 3 15.709440106849216 37.12265908070259 15.768303913482384 0 0 0
384 1 18.313553554721807 39.76981845301126 18.47950561248548 0 0 0
385 1 0.04641404736213631 21.289038741326888 21.053579897986182 0 0 0
389 1 10.33013590690878 21.191702584319916 21.05428865156416 0 0 0
397 3 10.652340160984528 26.26762514375178 21.068345248907516 0 0 0
897 3 20.980793399226762 21.329469253427316 21.13002441237307 0 0 0
403 3 5.259191573097782 31.478860553045667 21.252411630318154 0 0 0
395 2 5.382854029953603 26.493871107008747 20.980510572124814 0 0 0
399 1 16.05783195170162 26.453794876890413 21.081574792321113 0 0 0
405 3 10.671699636653127 31.87563775854753 21.09574597969905 0 0 0
913 1 21.13716687186598 32.043381512012814 21.289472423340197 0 0 0
407 2 15.985415944679342 31.985308319007444 21.139162024642275 0 0 0
411 1 5.415935390264998 37.09189741169698 20.942211623099237 0 0 0
413 1 10.508125060362504 37.128498134858084 21.256431270146695 0 0 0
921 3 21.051692941164788 37.14231603787703 21.037347996723312 0 0 0
415 2 16.04331884724075 37.268119259399974 21.106147990246612 0 0 0
386 1 2.7914217948769293 23.8121981383427 23.848599435257302 0 0 0
421 2 0.25758982122832363 26.240974601178003 26.398161506194093 0 0 0
388 2 7.869182279401744 23.91668434589053 23.553600779912962 0 0 0
419 1 10.567180252541444 21.196930443295575 26.141554856602852 0 0 0
422 3 5.391233517874318 26.40098235698925 26.306739792630843 0 0 0
390 2 13.167763033504816 23.731042483422833 23.66155699513518 0 0 0
423 2 10.681064481525281 26.4224916145746 26.307639030077166 0 0 0
392 2 18.62570114527338 23.831076142944784 23.832885099369367 0 0 0
424 3 15.987643663950026 26.302008520239113 26.46364412369064 0 0 0
394 2 2.6469839249346143 29.147015804188854 24.010973518958963 0 0 0
425 2 0.026598961148235383 31.588085911593723 26.597946274417783 0 0 0
396 2 8.170590410497942 29.164946833855723 23.818295418910587 0 0 0
398 1 13.3073312977635 29.220694531960355 23.752478051477798 0 0 0
400 2 18.601810056114374 29.07272691457389 23.73610571681854 0 0 0
402 3 2.7622015103843105 34.45096219914544 23.648164709362952 0 0 0
429 2 0.04677485984095642 36.97892578804987 26.33730923958788 0 0 0
426 2 5.3815454830769225 31.801383183899457 26.482507924468244 0 0 0
404 3 7.756752571811201 34.44116688388098 23.657120738296612 0 0 0
427 3 10.632912463164997 32.074672043393235 26.172215674135707 0 0 0
406 2 13.253642196552926 34.731395572669996 23.93467650996087 0 0 0
937 3 20.86128203349308 31.832862760633002 26.332088027458635 0 0 0
428 2 16.023719598137998 31.808710125123653 26.448160238550628 0 0 0
408 2 18.34983830200895 34.53976188257473 23.95515205387317 0 0 0
410 1 2.7959826506930527 39.67182408183458 23.752215412131353 0 0 0
431 3 10.283159779075488 37.144654490857256 26.435867012433302 0 0 0
412 2 7.94129091600095 39.58100561266349 23.76444729532998 0 0 0
430 2 5.408127400557414 37.101972565204015 26.398263051015952 0 0 0
414 2 13.233946694066177 39.65217726530568 23.78015832590788 0 0 0
164 2 15.791318513736414 42.094297751353906 26.612843528200667 0 -1 0
416 2 18.733109253508353 39.640942792650684 23.86738754463672 0 0 0
432 1 15.871346546992493 37.39632839909696 26.51296385799649 0 0 0
433 2 2.914012523280685 23.699689289458757 28.90946583969191 0 0 0
449 1 0.17645400225346747 21.246665406010827 31.677626872696944 0 0 0
451 1 5.399138652468463 21.301488085975038 31.60813737546444 0 0 0
434 3 8.029551749651231 23.57223105840635 28.786710645696772 0 0 0
453 1 10.879811148684256 21.18195427176042 31.413336343119838 0 0 0
435 2 13.339436551428618 23.636733779130974 28.86562266491037 0 0 0
455 2 15.829416520269294 21.363668889622843 31.648178910963072 0 0 0
436 1 18.60439110732667 23.714386739224935 29.133739930707858 0 0 0
463 2 15.991044953268453 26.254604553802427 31.76330067415848 0 0 0
969 1 21.10732163206976 26.213744936158637 31.82498615196887 0 0 0
437 2 2.7049320972818847 28.88681751520996 28.804669505996873 0 0 0
457 3 0.2500715933541205 26.435960783525054 31.60918791148555 0 0 0
467 3 5.270341629419953 31.551099075801226 31.548131118468373 0 0 0
459 3 5.496598740117879 26.638426218538566 31.368868188105267 0 0 0
438 1 8.073692034853565 29.010407194759296 28.797480876797266 0 0 0
461 3 10.532337580962313 26.49180570914294 31.360366280667336 0 0 0
469 1 10.598378495473238 31.70942825107119 31.31431613444189 0 0 0
439 1 13.53903536210645 29.064989257885426 28.751340088500555 0 0 0
471 2 15.826471539721446 31.659389641757585 31.62625694042275 0 0 0
440 3 18.445537082844556 29.09000816207566 29.142130751216317 0 0 0
465 1 0.02095986342880388 31.840481599691973 31.58279199318021 0 0 0
441 2 2.6019468821649974 34.345594016087105 29.042068309904288 0 0 0
442 3 7.828302600257363 34.560997829739094 29.179134610959313 0 0 0
477 3 10.500499937645696 36.858183882361395 31.686692816690762 0 0 0
443 1 13.324754958117799 34.46229713649075 28.881887765502576 0 0 0
444 3 18.291678784165683 34.40048599438725 29.248120594831512 0 0 0
985 2 21.115252610957267 36.66629706443551 31.654204471802153 0 0 0
445 1 2.6165389355245368 39.847720007958415 29.07597478657316 0 0 0
475 2 5.357602705465824 37.22529890704104 31.810283446289745 0 0 0
446 1 7.725786129533572 39.9256193522469 29.091003665516272 0 0 0
447 3 12.934747354146547 39.673555572915014 29.055413604905457 0 0 0
479 3 15.71068052251461 37.12852317056317 31.53074436017209 0 0 0
448 3 18.666508298146773 39.94552493272795 29.391138812854404 0 0 0